# vtk DataFile Version 3.0
STAP++ results
ASCII
DATASET UNSTRUCTURED_GRID
POINTS 10201 float
0 0.1 0
0 0.109 0
0 0.118 0
0 0.127 0
0 0.136 0
0 0.145 0
0 0.154 0
0 0.163 0
0 0.172 0
0 0.181 0
0 0.19 0
0 0.199 0
0 0.208 0
0 0.217 0
0 0.226 0
0 0.235 0
0 0.244 0
0 0.253 0
0 0.262 0
0 0.271 0
0 0.28 0
0 0.289 0
0 0.298 0
0 0.307 0
0 0.316 0
0 0.325 0
0 0.334 0
0 0.343 0
0 0.352 0
0 0.361 0
0 0.37 0
0 0.379 0
0 0.388 0
0 0.397 0
0 0.406 0
0 0.415 0
0 0.424 0
0 0.433 0
0 0.442 0
0 0.451 0
0 0.46 0
0 0.469 0
0 0.478 0
0 0.487 0
0 0.496 0
0 0.505 0
0 0.514 0
0 0.523 0
0 0.532 0
0 0.541 0
0 0.55 0
0 0.559 0
0 0.568 0
0 0.577 0
0 0.586 0
0 0.595 0
0 0.604 0
0 0.613 0
0 0.622 0
0 0.631 0
0 0.64 0
0 0.649 0
0 0.658 0
0 0.667 0
0 0.676 0
0 0.685 0
0 0.694 0
0 0.703 0
0 0.712 0
0 0.721 0
0 0.73 0
0 0.739 0
0 0.748 0
0 0.757 0
0 0.766 0
0 0.775 0
0 0.784 0
0 0.793 0
0 0.802 0
0 0.811 0
0 0.82 0
0 0.829 0
0 0.838 0
0 0.847 0
0 0.856 0
0 0.865 0
0 0.874 0
0 0.883 0
0 0.892 0
0 0.901 0
0 0.91 0
0 0.919 0
0 0.928 0
0 0.937 0
0 0.946 0
0 0.955 0
0 0.964 0
0 0.973 0
0 0.982 0
0 0.991 0
0 1 0
0.02 0.105 0
0.02 0.11395 0
0.02 0.1229 0
0.02 0.13185 0
0.02 0.1408 0
0.02 0.14975 0
0.02 0.1587 0
0.02 0.16765 0
0.02 0.1766 0
0.02 0.18555 0
0.02 0.1945 0
0.02 0.20345 0
0.02 0.2124 0
0.02 0.22135 0
0.02 0.2303 0
0.02 0.23925 0
0.02 0.2482 0
0.02 0.25715 0
0.02 0.2661 0
0.02 0.27505 0
0.02 0.284 0
0.02 0.29295 0
0.02 0.3019 0
0.02 0.31085 0
0.02 0.3198 0
0.02 0.32875 0
0.02 0.3377 0
0.02 0.34665 0
0.02 0.3556 0
0.02 0.36455 0
0.02 0.3735 0
0.02 0.38245 0
0.02 0.3914 0
0.02 0.40035 0
0.02 0.4093 0
0.02 0.41825 0
0.02 0.4272 0
0.02 0.43615 0
0.02 0.4451 0
0.02 0.45405 0
0.02 0.463 0
0.02 0.47195 0
0.02 0.4809 0
0.02 0.48985 0
0.02 0.4988 0
0.02 0.50775 0
0.02 0.5167 0
0.02 0.52565 0
0.02 0.5346 0
0.02 0.54355 0
0.02 0.5525 0
0.02 0.56145 0
0.02 0.5704 0
0.02 0.57935 0
0.02 0.5883 0
0.02 0.59725 0
0.02 0.6062 0
0.02 0.61515 0
0.02 0.6241 0
0.02 0.63305 0
0.02 0.642 0
0.02 0.65095 0
0.02 0.6599 0
0.02 0.66885 0
0.02 0.6778 0
0.02 0.68675 0
0.02 0.6957 0
0.02 0.70465 0
0.02 0.7136 0
0.02 0.72255 0
0.02 0.7315 0
0.02 0.74045 0
0.02 0.7494 0
0.02 0.75835 0
0.02 0.7673 0
0.02 0.77625 0
0.02 0.7852 0
0.02 0.79415 0
0.02 0.8031 0
0.02 0.81205 0
0.02 0.821 0
0.02 0.82995 0
0.02 0.8389 0
0.02 0.84785 0
0.02 0.8568 0
0.02 0.86575 0
0.02 0.8747 0
0.02 0.88365 0
0.02 0.8926 0
0.02 0.90155 0
0.02 0.9105 0
0.02 0.91945 0
0.02 0.9284 0
0.02 0.93735 0
0.02 0.9463 0
0.02 0.95525 0
0.02 0.9642 0
0.02 0.97315 0
0.02 0.9821 0
0.02 0.99105 0
0.02 1 0
0.04 0.11 0
0.04 0.1189 0
0.04 0.1278 0
0.04 0.1367 0
0.04 0.1456 0
0.04 0.1545 0
0.04 0.1634 0
0.04 0.1723 0
0.04 0.1812 0
0.04 0.1901 0
0.04 0.199 0
0.04 0.2079 0
0.04 0.2168 0
0.04 0.2257 0
0.04 0.2346 0
0.04 0.2435 0
0.04 0.2524 0
0.04 0.2613 0
0.04 0.2702 0
0.04 0.2791 0
0.04 0.288 0
0.04 0.2969 0
0.04 0.3058 0
0.04 0.3147 0
0.04 0.3236 0
0.04 0.3325 0
0.04 0.3414 0
0.04 0.3503 0
0.04 0.3592 0
0.04 0.3681 0
0.04 0.377 0
0.04 0.3859 0
0.04 0.3948 0
0.04 0.4037 0
0.04 0.4126 0
0.04 0.4215 0
0.04 0.4304 0
0.04 0.4393 0
0.04 0.4482 0
0.04 0.4571 0
0.04 0.466 0
0.04 0.4749 0
0.04 0.4838 0
0.04 0.4927 0
0.04 0.5016 0
0.04 0.5105 0
0.04 0.5194 0
0.04 0.5283 0
0.04 0.5372 0
0.04 0.5461 0
0.04 0.555 0
0.04 0.5639 0
0.04 0.5728 0
0.04 0.5817 0
0.04 0.5906 0
0.04 0.5995 0
0.04 0.6084 0
0.04 0.6173 0
0.04 0.6262 0
0.04 0.6351 0
0.04 0.644 0
0.04 0.6529 0
0.04 0.6618 0
0.04 0.6707 0
0.04 0.6796 0
0.04 0.6885 0
0.04 0.6974 0
0.04 0.7063 0
0.04 0.7152 0
0.04 0.7241 0
0.04 0.733 0
0.04 0.7419 0
0.04 0.7508 0
0.04 0.7597 0
0.04 0.7686 0
0.04 0.7775 0
0.04 0.7864 0
0.04 0.7953 0
0.04 0.8042 0
0.04 0.8131 0
0.04 0.822 0
0.04 0.8309 0
0.04 0.8398 0
0.04 0.8487 0
0.04 0.8576 0
0.04 0.8665 0
0.04 0.8754 0
0.04 0.8843 0
0.04 0.8932 0
0.04 0.9021 0
0.04 0.911 0
0.04 0.9199 0
0.04 0.9288 0
0.04 0.9377 0
0.04 0.9466 0
0.04 0.9555 0
0.04 0.9644 0
0.04 0.9733 0
0.04 0.9822 0
0.04 0.9911 0
0.04 1 0
0.06 0.115 0
0.06 0.12385 0
0.06 0.1327 0
0.06 0.14155 0
0.06 0.1504 0
0.06 0.15925 0
0.06 0.1681 0
0.06 0.17695 0
0.06 0.1858 0
0.06 0.19465 0
0.06 0.2035 0
0.06 0.21235 0
0.06 0.2212 0
0.06 0.23005 0
0.06 0.2389 0
0.06 0.24775 0
0.06 0.2566 0
0.06 0.26545 0
0.06 0.2743 0
0.06 0.28315 0
0.06 0.292 0
0.06 0.30085 0
0.06 0.3097 0
0.06 0.31855 0
0.06 0.3274 0
0.06 0.33625 0
0.06 0.3451 0
0.06 0.35395 0
0.06 0.3628 0
0.06 0.37165 0
0.06 0.3805 0
0.06 0.38935 0
0.06 0.3982 0
0.06 0.40705 0
0.06 0.4159 0
0.06 0.42475 0
0.06 0.4336 0
0.06 0.44245 0
0.06 0.4513 0
0.06 0.46015 0
0.06 0.469 0
0.06 0.47785 0
0.06 0.4867 0
0.06 0.49555 0
0.06 0.5044 0
0.06 0.51325 0
0.06 0.5221 0
0.06 0.53095 0
0.06 0.5398 0
0.06 0.54865 0
0.06 0.5575 0
0.06 0.56635 0
0.06 0.5752 0
0.06 0.58405 0
0.06 0.5929 0
0.06 0.60175 0
0.06 0.6106 0
0.06 0.61945 0
0.06 0.6283 0
0.06 0.63715 0
0.06 0.646 0
0.06 0.65485 0
0.06 0.6637 0
0.06 0.67255 0
0.06 0.6814 0
0.06 0.69025 0
0.06 0.6991 0
0.06 0.70795 0
0.06 0.7168 0
0.06 0.72565 0
0.06 0.7345 0
0.06 0.74335 0
0.06 0.7522 0
0.06 0.76105 0
0.06 0.7699 0
0.06 0.77875 0
0.06 0.7876 0
0.06 0.79645 0
0.06 0.8053 0
0.06 0.81415 0
0.06 0.823 0
0.06 0.83185 0
0.06 0.8407 0
0.06 0.84955 0
0.06 0.8584 0
0.06 0.86725 0
0.06 0.8761 0
0.06 0.88495 0
0.06 0.8938 0
0.06 0.90265 0
0.06 0.9115 0
0.06 0.92035 0
0.06 0.9292 0
0.06 0.93805 0
0.06 0.9469 0
0.06 0.95575 0
0.06 0.9646 0
0.06 0.97345 0
0.06 0.9823 0
0.06 0.99115 0
0.06 1 0
0.08 0.12 0
0.08 0.1288 0
0.08 0.1376 0
0.08 0.1464 0
0.08 0.1552 0
0.08 0.164 0
0.08 0.1728 0
0.08 0.1816 0
0.08 0.1904 0
0.08 0.1992 0
0.08 0.208 0
0.08 0.2168 0
0.08 0.2256 0
0.08 0.2344 0
0.08 0.2432 0
0.08 0.252 0
0.08 0.2608 0
0.08 0.2696 0
0.08 0.2784 0
0.08 0.2872 0
0.08 0.296 0
0.08 0.3048 0
0.08 0.3136 0
0.08 0.3224 0
0.08 0.3312 0
0.08 0.34 0
0.08 0.3488 0
0.08 0.3576 0
0.08 0.3664 0
0.08 0.3752 0
0.08 0.384 0
0.08 0.3928 0
0.08 0.4016 0
0.08 0.4104 0
0.08 0.4192 0
0.08 0.428 0
0.08 0.4368 0
0.08 0.4456 0
0.08 0.4544 0
0.08 0.4632 0
0.08 0.472 0
0.08 0.4808 0
0.08 0.4896 0
0.08 0.4984 0
0.08 0.5072 0
0.08 0.516 0
0.08 0.5248 0
0.08 0.5336 0
0.08 0.5424 0
0.08 0.5512 0
0.08 0.56 0
0.08 0.5688 0
0.08 0.5776 0
0.08 0.5864 0
0.08 0.5952 0
0.08 0.604 0
0.08 0.6128 0
0.08 0.6216 0
0.08 0.6304 0
0.08 0.6392 0
0.08 0.648 0
0.08 0.6568 0
0.08 0.6656 0
0.08 0.6744 0
0.08 0.6832 0
0.08 0.692 0
0.08 0.7008 0
0.08 0.7096 0
0.08 0.7184 0
0.08 0.7272 0
0.08 0.736 0
0.08 0.7448 0
0.08 0.7536 0
0.08 0.7624 0
0.08 0.7712 0
0.08 0.78 0
0.08 0.7888 0
0.08 0.7976 0
0.08 0.8064 0
0.08 0.8152 0
0.08 0.824 0
0.08 0.8328 0
0.08 0.8416 0
0.08 0.8504 0
0.08 0.8592 0
0.08 0.868 0
0.08 0.8768 0
0.08 0.8856 0
0.08 0.8944 0
0.08 0.9032 0
0.08 0.912 0
0.08 0.9208 0
0.08 0.9296 0
0.08 0.9384 0
0.08 0.9472 0
0.08 0.956 0
0.08 0.9648 0
0.08 0.9736 0
0.08 0.9824 0
0.08 0.9912 0
0.08 1 0
0.1 0.125 0
0.1 0.13375 0
0.1 0.1425 0
0.1 0.15125 0
0.1 0.16 0
0.1 0.16875 0
0.1 0.1775 0
0.1 0.18625 0
0.1 0.195 0
0.1 0.20375 0
0.1 0.2125 0
0.1 0.22125 0
0.1 0.23 0
0.1 0.23875 0
0.1 0.2475 0
0.1 0.25625 0
0.1 0.265 0
0.1 0.27375 0
0.1 0.2825 0
0.1 0.29125 0
0.1 0.3 0
0.1 0.30875 0
0.1 0.3175 0
0.1 0.32625 0
0.1 0.335 0
0.1 0.34375 0
0.1 0.3525 0
0.1 0.36125 0
0.1 0.37 0
0.1 0.37875 0
0.1 0.3875 0
0.1 0.39625 0
0.1 0.405 0
0.1 0.41375 0
0.1 0.4225 0
0.1 0.43125 0
0.1 0.44 0
0.1 0.44875 0
0.1 0.4575 0
0.1 0.46625 0
0.1 0.475 0
0.1 0.48375 0
0.1 0.4925 0
0.1 0.50125 0
0.1 0.51 0
0.1 0.51875 0
0.1 0.5275 0
0.1 0.53625 0
0.1 0.545 0
0.1 0.55375 0
0.1 0.5625 0
0.1 0.57125 0
0.1 0.58 0
0.1 0.58875 0
0.1 0.5975 0
0.1 0.60625 0
0.1 0.615 0
0.1 0.62375 0
0.1 0.6325 0
0.1 0.64125 0
0.1 0.65 0
0.1 0.65875 0
0.1 0.6675 0
0.1 0.67625 0
0.1 0.685 0
0.1 0.69375 0
0.1 0.7025 0
0.1 0.71125 0
0.1 0.72 0
0.1 0.72875 0
0.1 0.7375 0
0.1 0.74625 0
0.1 0.755 0
0.1 0.76375 0
0.1 0.7725 0
0.1 0.78125 0
0.1 0.79 0
0.1 0.79875 0
0.1 0.8075 0
0.1 0.81625 0
0.1 0.825 0
0.1 0.83375 0
0.1 0.8425 0
0.1 0.85125 0
0.1 0.86 0
0.1 0.86875 0
0.1 0.8775 0
0.1 0.88625 0
0.1 0.895 0
0.1 0.90375 0
0.1 0.9125 0
0.1 0.92125 0
0.1 0.93 0
0.1 0.93875 0
0.1 0.9475 0
0.1 0.95625 0
0.1 0.965 0
0.1 0.97375 0
0.1 0.9825 0
0.1 0.99125 0
0.1 1 0
0.12 0.13 0
0.12 0.1387 0
0.12 0.1474 0
0.12 0.1561 0
0.12 0.1648 0
0.12 0.1735 0
0.12 0.1822 0
0.12 0.1909 0
0.12 0.1996 0
0.12 0.2083 0
0.12 0.217 0
0.12 0.2257 0
0.12 0.2344 0
0.12 0.2431 0
0.12 0.2518 0
0.12 0.2605 0
0.12 0.2692 0
0.12 0.2779 0
0.12 0.2866 0
0.12 0.2953 0
0.12 0.304 0
0.12 0.3127 0
0.12 0.3214 0
0.12 0.3301 0
0.12 0.3388 0
0.12 0.3475 0
0.12 0.3562 0
0.12 0.3649 0
0.12 0.3736 0
0.12 0.3823 0
0.12 0.391 0
0.12 0.3997 0
0.12 0.4084 0
0.12 0.4171 0
0.12 0.4258 0
0.12 0.4345 0
0.12 0.4432 0
0.12 0.4519 0
0.12 0.4606 0
0.12 0.4693 0
0.12 0.478 0
0.12 0.4867 0
0.12 0.4954 0
0.12 0.5041 0
0.12 0.5128 0
0.12 0.5215 0
0.12 0.5302 0
0.12 0.5389 0
0.12 0.5476 0
0.12 0.5563 0
0.12 0.565 0
0.12 0.5737 0
0.12 0.5824 0
0.12 0.5911 0
0.12 0.5998 0
0.12 0.6085 0
0.12 0.6172 0
0.12 0.6259 0
0.12 0.6346 0
0.12 0.6433 0
0.12 0.652 0
0.12 0.6607 0
0.12 0.6694 0
0.12 0.6781 0
0.12 0.6868 0
0.12 0.6955 0
0.12 0.7042 0
0.12 0.7129 0
0.12 0.7216 0
0.12 0.7303 0
0.12 0.739 0
0.12 0.7477 0
0.12 0.7564 0
0.12 0.7651 0
0.12 0.7738 0
0.12 0.7825 0
0.12 0.7912 0
0.12 0.7999 0
0.12 0.8086 0
0.12 0.8173 0
0.12 0.826 0
0.12 0.8347 0
0.12 0.8434 0
0.12 0.8521 0
0.12 0.8608 0
0.12 0.8695 0
0.12 0.8782 0
0.12 0.8869 0
0.12 0.8956 0
0.12 0.9043 0
0.12 0.913 0
0.12 0.9217 0
0.12 0.9304 0
0.12 0.9391 0
0.12 0.9478 0
0.12 0.9565 0
0.12 0.9652 0
0.12 0.9739 0
0.12 0.9826 0
0.12 0.9913 0
0.12 1 0
0.14 0.135 0
0.14 0.14365 0
0.14 0.1523 0
0.14 0.16095 0
0.14 0.1696 0
0.14 0.17825 0
0.14 0.1869 0
0.14 0.19555 0
0.14 0.2042 0
0.14 0.21285 0
0.14 0.2215 0
0.14 0.23015 0
0.14 0.2388 0
0.14 0.24745 0
0.14 0.2561 0
0.14 0.26475 0
0.14 0.2734 0
0.14 0.28205 0
0.14 0.2907 0
0.14 0.29935 0
0.14 0.308 0
0.14 0.31665 0
0.14 0.3253 0
0.14 0.33395 0
0.14 0.3426 0
0.14 0.35125 0
0.14 0.3599 0
0.14 0.36855 0
0.14 0.3772 0
0.14 0.38585 0
0.14 0.3945 0
0.14 0.40315 0
0.14 0.4118 0
0.14 0.42045 0
[...]
POINT_DATA 10201
VECTORS displacement float
-1.26149e-24 0 0
2.1595e-24 0 0
7.71795e-24 0 0
-2.64153e-25 0 0
-1.20014e-23 0 0
-4.74309e-24 0 0
6.62209e-24 0 0
1.62581e-23 0 0
2.83278e-24 0 0
1.9825e-24 0 0
-4.97681e-24 0 0
-1.73493e-23 0 0
1.26574e-24 0 0
-1.24645e-24 0 0
6.39496e-24 0 0
3.29964e-24 0 0
-6.36118e-24 0 0
8.90057e-24 0 0
-2.6699e-24 0 0
-3.47166e-24 0 0
5.69367e-25 0 0
1.71503e-23 0 0
-3.02563e-23 0 0
3.36835e-23 0 0
-6.93353e-23 0 0
8.50515e-23 0 0
-1.09496e-22 0 0
1.66408e-22 0 0
-2.58542e-22 0 0
4.3171e-22 0 0
-6.49126e-22 0 0
1.00968e-21 0 0
-1.56432e-21 0 0
2.3598e-21 0 0
-3.63836e-21 0 0
5.50668e-21 0 0
-8.32811e-21 0 0
1.26463e-20 0 0
-1.90771e-20 0 0
2.86912e-20 0 0
-4.3017e-20 0 0
6.432e-20 0 0
-9.58923e-20 0 0
1.42575e-19 0 0
-2.11378e-19 0 0
3.12399e-19 0 0
-4.6043e-19 0 0
6.76618e-19 0 0
-9.91448e-19 0 0
1.44856e-18 0 0
-2.11019e-18 0 0
3.06513e-18 0 0
-4.43932e-18 0 0
6.41077e-18 0 0
-9.23098e-18 0 0
1.32526e-17 0 0
-1.89717e-17 0 0
2.70778e-17 0 0
-3.85373e-17 0 0
5.46812e-17 0 0
-7.73695e-17 0 0
1.09135e-16 0 0
-1.5352e-16 0 0
2.15269e-16 0 0
-3.01063e-16 0 0
4.19641e-16 0 0
-5.83508e-16 0 0
8.08428e-16 0 0
-1.11773e-15 0 0
1.53906e-15 0 0
-2.11609e-15 0 0
2.8953e-15 0 0
-3.95972e-15 0 0
5.38176e-15 0 0
-7.32436e-15 0 0
9.88308e-15 0 0
-1.33946e-14 0 0
1.79269e-14 0 0
-2.42263e-14 0 0
3.21073e-14 0 0
-4.33588e-14 0 0
5.67447e-14 0 0
-7.68572e-14 0 0
9.88607e-14 0 0
-1.35117e-13 0 0
1.69511e-13 0 0
-2.36049e-13 0 0
2.85387e-13 0 0
-4.1073e-13 0 0
4.70558e-13 0 0
-7.1271e-13 0 0
7.59657e-13 0 0
-1.22796e-12 0 0
1.21479e-12 0 0
-2.05397e-12 0 0
2.03052e-12 0 0
-3.09147e-12 0 0
4.14956e-12 0 0
-3.12654e-12 0 0
1.27614e-11 0 0
2.78438e-12 0 0
2.02312e-24 -8.26276e-25 0
-5.12592e-24 5.1954e-25 0
-4.71241e-24 -1.8792e-25 0
1.38755e-23 -5.64655e-24 0
5.51226e-24 -2.50417e-24 0
-7.7344e-24 7.16753e-24 0
-2.63851e-23 1.0109e-23 0
-9.7361e-24 3.41184e-24 0
1.01132e-23 -9.82234e-24 0
1.2141e-23 -1.10559e-23 0
3.64897e-23 -1.29672e-23 0
6.28735e-24 -4.55509e-24 0
-6.84402e-24 8.88024e-24 0
-8.95261e-24 6.03511e-24 0
-1.68404e-23 5.73532e-24 0
5.96653e-24 1.39234e-24 0
-1.34549e-23 -3.65106e-25 0
-4.442e-24 7.34451e-24 0
4.94111e-24 -9.33385e-24 0
2.11932e-23 3.62683e-24 0
-3.47061e-23 -1.03443e-23 0
6.16444e-23 1.22226e-23 0
-5.08238e-23 -4.01141e-23 0
1.06798e-22 4.65688e-23 0
-1.28414e-22 -7.50231e-23 0
1.53335e-22 1.35594e-22 0
-2.85504e-22 -1.78787e-22 0
4.34421e-22 2.84577e-22 0
-7.22623e-22 -4.21467e-22 0
1.07617e-21 6.60454e-22 0
-1.64902e-21 -1.02397e-21 0
2.57057e-21 1.53176e-21 0
-3.83505e-21 -2.37017e-21 0
5.90895e-21 3.56726e-21 0
-8.91552e-21 -5.39751e-21 0
1.34348e-20 8.17711e-21 0
-2.03966e-20 -1.22355e-20 0
3.06136e-20 1.83731e-20 0
-4.5902e-20 -2.74767e-20 0
6.86001e-20 4.09645e-20 0
-1.02271e-19 -6.08896e-20 0
1.52038e-19 9.02388e-20 0
-2.25363e-19 -1.33361e-19 0
3.33134e-19 1.96487e-19 0
-4.90856e-19 -2.88723e-19 0
7.21346e-19 4.22961e-19 0
-1.057e-18 -6.17788e-19 0
1.54428e-18 8.99801e-19 0
-2.24984e-18 -1.30663e-18 0
3.26795e-18 1.89201e-18 0
-4.73342e-18 -2.73149e-18 0
6.83603e-18 3.93198e-18 0
-9.84414e-18 -5.64347e-18 0
1.41347e-17 8.07631e-18 0
-2.02364e-17 -1.15238e-17 0
2.88876e-17 1.63952e-17 0
-4.11178e-17 -2.32564e-17 0
5.83541e-17 3.28935e-17 0
-8.25768e-17 -4.63844e-17 0
1.16508e-16 6.5221e-17 0
-1.6391e-16 -9.14276e-17 0
2.29906e-16 1.27803e-16 0
-3.21559e-16 -1.78094e-16 0
4.48378e-16 2.47496e-16 0
-6.23471e-16 -3.42829e-16 0
8.64219e-16 4.73658e-16 0
-1.19471e-15 -6.52159e-16 0
1.64617e-15 8.95848e-16 0
-2.26253e-15 -1.22593e-15 0
3.09873e-15 1.67451e-15 0
-4.23458e-15 -2.2772e-15 0
5.76412e-15 3.09351e-15 0
-7.83283e-15 -4.17965e-15 0
1.05949e-14 5.64898e-15 0
-1.43199e-14 -7.57958e-15 0
1.92418e-14 1.01982e-14 0
-2.58773e-14 -1.35785e-14 0
3.45242e-14 1.82077e-14 0
-4.62313e-14 -2.40239e-14 0
6.11836e-14 3.21666e-14 0
-8.16856e-14 -4.19559e-14 0
1.07056e-13 5.62835e-14 0
-1.42831e-13 -7.22574e-14 0
1.84817e-13 9.76932e-14 0
-2.47428e-13 -1.22504e-13 0
3.14381e-13 1.68636e-13 0
-4.25477e-13 -2.0381e-13 0
5.25653e-13 2.90603e-13 0
-7.28689e-13 -3.3092e-13 0
8.60051e-13 5.02516e-13 0
-1.2496e-12 -5.19599e-13 0
1.3659e-12 8.76479e-13 0
-2.16357e-12 -7.77899e-13 0
2.0781e-12 1.54185e-12 0
-3.83057e-12 -1.09007e-12 0
2.98297e-12 2.67858e-12 0
-7.04948e-12 -1.41624e-12 0
4.00805e-12 4.2017e-12 0
-1.33559e-11 -1.89933e-12 0
4.3639e-12 3.87342e-12 0
-2.13412e-11 -4.82888e-12 0
-5.05055e-24 3.7787e-24 0
-1.41329e-24 2.99223e-24 0
-2.58538e-23 1.15066e-23 0
-1.7056e-23 8.4414e-24 0
1.93647e-23 -9.67862e-24 0
3.8389e-23 -1.74857e-23 0
2.25232e-23 -9.89114e-24 0
-2.32723e-23 9.97536e-24 0
-1.84938e-23 1.27367e-23 0
-5.34181e-23 2.36897e-23 0
-4.8596e-23 2.20875e-23 0
1.8505e-23 -7.26005e-24 0
1.22642e-23 -9.60397e-24 0
3.74667e-23 -1.32704e-23 0
-1.09363e-23 -3.661e-25 0
1.56875e-23 -1.26683e-24 0
1.72724e-23 -1.5565e-23 0
3.37537e-23 -1.98133e-24 0
-5.09414e-23 -3.05523e-25 0
5.55743e-23 1.11947e-23 0
-9.22176e-23 -1.10007e-23 0
4.55582e-23 5.78033e-23 0
-1.34579e-22 -5.46094e-23 0
1.19332e-22 1.21148e-22 0
-1.75492e-22 -1.93716e-22 0
4.19281e-22 2.34445e-22 0
-5.8673e-22 -3.95786e-22 0
9.85058e-22 5.71868e-22 0
-1.43138e-21 -9.11187e-22 0
2.20098e-21 1.38666e-21 0
-3.42302e-21 -2.07533e-21 0
5.05089e-21 3.22167e-21 0
-7.8089e-21 -4.80777e-21 0
1.17427e-20 7.28362e-21 0
-1.77061e-20 -1.09712e-20 0
2.6868e-20 1.63513e-20 0
-4.00846e-20 -2.45564e-20 0
6e-20 3.66033e-20 0
-8.9472e-20 -5.44442e-20 0
1.33155e-19 8.0702e-20 0
-1.97508e-19 -1.19324e-19 0
2.92133e-19 1.75921e-19 0
-4.30919e-19 -2.58582e-19 0
6.3358e-19 3.79107e-19 0
-9.29266e-19 -5.54041e-19 0
1.35886e-18 8.07443e-19 0
-1.98115e-18 -1.17345e-18 0
2.88046e-18 1.70028e-18 0
-4.17546e-18 -2.45677e-18 0
6.03596e-18 3.53926e-18 0
-8.69982e-18 -5.0842e-18 0
1.25032e-17 7.28236e-18 0
-1.79174e-17 -1.04007e-17 0
2.56015e-17 1.48114e-17 0
-3.64754e-17 -2.10312e-17 0
5.18164e-17 2.97764e-17 0
-7.33962e-17 -4.20355e-17 0
1.03659e-16 5.91696e-17 0
-1.45975e-16 -8.30449e-17 0
2.0496e-16 1.16216e-16 0
-2.86945e-16 -1.62161e-16 0
4.00532e-16 2.25616e-16 0
-5.5747e-16 -3.12978e-16 0
7.73566e-16 4.32917e-16 0
-1.07036e-15 -5.9705e-16 0
1.47649e-15 8.21053e-16 0
-2.031e-15 -1.12574e-15 0
2.78495e-15 1.53912e-15 0
-3.80844e-15 -2.09796e-15 0
5.19086e-15 2.8518e-15 0
-7.05719e-15 -3.86453e-15 0
9.56038e-15 5.22308e-15 0
-1.29228e-14 -7.03646e-15 0
1.7398e-14 9.45635e-15 0
-2.33843e-14 -1.26645e-14 0
3.12807e-14 1.6926e-14 0
-4.18165e-14 -2.25335e-14 0
5.556e-14 2.99564e-14 0
-7.39043e-14 -3.96377e-14 0
9.74724e-14 5.24363e-14 0
-1.29115e-13 -6.89389e-14 0
1.68854e-13 9.08129e-14 0
-2.23067e-13 -1.18553e-13 0
2.88694e-13 1.55704e-13 0
-3.8139e-13 -2.01565e-13 0
4.86703e-13 2.64561e-13 0
-6.46229e-13 -3.38665e-13 0
8.07703e-13 4.46275e-13 0
-1.088e-12 -5.61541e-13 0
1.31533e-12 7.49765e-13 0
-1.82932e-12 -9.15428e-13 0
2.08979e-12 1.26189e-12 0
-3.10016e-12 -1.45299e-12 0
3.20076e-12 2.15152e-12 0
-5.36687e-12 -2.19606e-12 0
4.56261e-12 3.82336e-12 0
-9.5533e-12 -3.07369e-12 0
5.23403e-12 7.71478e-12 0
-1.7227e-11 -4.43196e-12 0
1.57678e-12 2.05758e-11 0
-3.40232e-11 -1.14201e-11 0
4.39427e-24 -7.15137e-24 0
3.09531e-23 -1.71294e-23 0
7.71457e-23 -3.52122e-23 0
1.15217e-25 -8.94764e-25 0
-4.91074e-23 2.33921e-23 0
-6.83951e-23 2.92019e-23 0
4.70662e-23 -2.04328e-23 0
4.06084e-23 -1.83891e-23 0
-1.92562e-24 -1.00076e-24 0
1.23214e-23 -3.28044e-24 0
-2.20659e-23 6.46399e-24 0
6.5769e-24 3.22787e-24 0
-4.85361e-23 1.59046e-23 0
1.1038e-23 5.90797e-25 0
3.47153e-23 -2.42115e-23 0
2.60623e-23 1.74107e-24 0
-6.21485e-23 8.45924e-24 0
2.03263e-25 3.14066e-23 0
-1.34659e-22 1.58002e-23 0
5.97815e-23 4.04823e-23 0
-5.49878e-23 -7.74058e-23 0
1.54426e-22 8.83388e-23 0
-1.64759e-22 -1.71077e-22 0
3.49945e-22 2.22532e-22 0
-5.39972e-22 -3.46384e-22 0
7.98432e-22 5.4813e-22 0
-1.29012e-21 -8.11923e-22 0
1.89551e-21 1.2763e-21 0
-2.88735e-21 -1.946e-21 0
4.37701e-21 2.96311e-21 0
-6.63946e-21 -4.49374e-21 0
1.01565e-20 6.7436e-21 0
-1.53507e-20 -1.01534e-20 0
2.30627e-20 1.52777e-20 0
-3.46716e-20 -2.28637e-20 0
5.18522e-20 3.41761e-20 0
-7.74565e-20 -5.08842e-20 0
1.15343e-19 7.55659e-20 0
-1.71257e-19 -1.11901e-19 0
2.53413e-19 1.65313e-19 0
-3.74219e-19 -2.43386e-19 0
5.50719e-19 3.57462e-19 0
-8.08229e-19 -5.23484e-19 0
1.18291e-18 7.64379e-19 0
-1.72614e-18 -1.11305e-18 0
2.51188e-18 1.61605e-18 0
-3.64479e-18 -2.3397e-18 0
5.27336e-18 3.37781e-18 0
-7.60777e-18 -4.86255e-18 0
1.09439e-17 6.97998e-18 0
-1.56976e-17 -9.99083e-18 0
2.24512e-17 1.42594e-17 0
-3.20174e-17 -2.02936e-17 0
4.55273e-17 2.87984e-17 0
-6.455e-17 -4.075e-17 0
9.1254e-17 5.74964e-17 0
-1.2863e-16 -8.08909e-17 0
1.80783e-16 1.13478e-16 0
-2.5334e-16 -1.58732e-16 0
3.53972e-16 2.21398e-16 0
-4.9313e-16 -3.07906e-16 0
6.84956e-16 4.26992e-16 0
-9.48618e-16 -5.90409e-16 0
1.30983e-15 8.14044e-16 0
-1.80331e-15 -1.11909e-15 0
2.47515e-15 1.53412e-15 0
-3.38744e-15 -2.09681e-15 0
4.6216e-15 2.85796e-15 0
-6.28742e-15 -3.88362e-15 0
8.52626e-15 5.26323e-15 0
-1.15304e-14 -7.11065e-15 0
1.55405e-14 9.58232e-15 0
-2.08911e-14 -1.28705e-14 0
2.79815e-14 1.72482e-14 0
-3.73936e-14 -2.30312e-14 0
4.97652e-14 3.06995e-14 0
-6.61196e-14 -4.07486e-14 0
8.74113e-14 5.404e-14 0
-1.15491e-13 -7.12888e-14 0
1.51602e-13 9.4108e-14 0
-1.99278e-13 -1.23337e-13 0
2.59543e-13 1.62206e-13 0
-3.39714e-13 -2.11043e-13 0
4.38397e-13 2.7692e-13 0
-5.7232e-13 -3.5718e-13 0
7.30016e-13 4.68815e-13 0
-9.53525e-13 -5.97896e-13 0
1.1967e-12 7.88594e-13 0
-1.57323e-12 -9.89687e-13 0
1.92585e-12 1.32241e-12 0
-2.57667e-12 -1.61981e-12 0
3.02315e-12 2.2255e-12 0
-4.20055e-12 -2.62827e-12 0
4.54838e-12 3.81774e-12 0
-6.81864e-12 -4.29161e-12 0
6.24807e-12 6.89655e-12 0
-1.10494e-11 -7.3028e-12 0
6.92973e-12 1.34114e-11 0
-1.87652e-11 -1.24757e-11 0
3.81066e-12 2.43868e-11 0
-3.59035e-11 -9.6092e-12 0
3.52431e-24 5.56212e-24 0
-4.52951e-23 2.44755e-23 0
-5.19545e-23 2.17903e-23 0
4.39422e-23 -1.81231e-23 0
5.36485e-23 -1.46987e-23 0
3.80547e-23 -1.50301e-23 0
-5.65277e-23 2.96271e-23 0
-3.33975e-23 1.22155e-23 0
-8.29532e-23 3.11443e-23 0
6.06269e-23 -1.10375e-23 0
1.7743e-23 -1.38559e-23 0
5.58661e-23 -3.32322e-23 0
5.33261e-23 -3.68029e-23 0
-7.62961e-23 3.90642e-23 0
-8.82431e-23 2.94825e-23 0
4.71931e-23 -2.85936e-25 0
-4.31854e-23 -9.37033e-24 0
1.39277e-22 -1.42899e-24 0
-6.32541e-24 -7.70986e-23 0
8.73886e-23 9.93635e-23 0
-1.95645e-22 -1.34104e-22 0
2.15241e-22 2.50486e-22 0
-5.32568e-22 -2.97172e-22 0
7.0024e-22 4.83094e-22 0
-1.00716e-21 -7.71522e-22 0
1.62102e-21 1.11927e-21 0
-2.41796e-21 -1.75303e-21 0
3.67572e-21 2.67436e-21 0
-5.6954e-21 -3.98921e-21 0
8.5663e-21 6.07565e-21 0
-1.29562e-20 -9.1537e-21 0
1.95978e-20 1.3712e-20 0
-2.92396e-20 -2.06684e-20 0
4.38989e-20 3.08668e-20 0
-6.55687e-20 -4.59915e-20 0
9.76487e-20 6.84265e-20 0
-1.45193e-19 -1.01384e-19 0
2.14975e-19 1.49958e-19 0
-3.1754e-19 -2.21122e-19 0
4.6766e-19 3.2518e-19 0
-6.86845e-19 -4.7683e-19 0
1.00595e-18 6.9715e-19 0
-1.46908e-18 -1.01656e-18 0
2.13926e-18 1.47805e-18 0
-3.10642e-18 -2.14298e-18 0
4.49777e-18 3.09829e-18 0
-6.49371e-18 -4.4668e-18 0
9.34842e-18 6.42144e-18 0
-1.34194e-17 -9.20525e-18 0
1.92075e-17 1.31583e-17 0
-2.74128e-17 -1.87555e-17 0
3.90099e-17 2.66573e-17 0
-5.53521e-17 -3.778e-17 0
7.83116e-17 5.33907e-17 0
-1.10471e-16 -7.52357e-17 0
1.55381e-16 1.05715e-16 0
-2.17908e-16 -1.48116e-16 0
3.04696e-16 2.06928e-16 0
-4.24795e-16 -2.88261e-16 0
5.90473e-16 4.00408e-16 0
-8.18341e-16 -5.54581e-16 0
1.13075e-15 7.65911e-16 0
-1.55778e-15 -1.05471e-15 0
2.1396e-15 1.44824e-15 0
-2.92995e-15 -1.98283e-15 0
3.99996e-15 2.707e-15 0
-5.44444e-15 -3.68486e-15 0
7.38742e-15 5.00175e-15 0
-9.99401e-15 -6.7693e-15 0
1.3477e-14 9.13593e-15 0
-1.81204e-14 -1.22932e-14 0
2.42825e-14 1.64967e-14 0
-3.24474e-14 -2.20701e-14 0
4.3204e-14 2.94503e-14 0
-5.7373e-14 -3.91733e-14 0
7.58913e-14 5.19845e-14 0
-1.00154e-13 -6.87493e-14 0
1.31577e-13 9.07459e-14 0
-1.72574e-13 -1.19317e-13 0
2.25076e-13 1.56698e-13 0
-2.93437e-13 -2.04826e-13 0
3.79673e-13 2.67772e-13 0
-4.92225e-13 -3.47889e-13 0
6.31065e-13 4.53122e-13 0
-8.14273e-13 -5.84872e-13 0
1.03216e-12 7.60135e-13 0
-1.3278e-12 -9.73957e-13 0
1.65721e-12 1.26661e-12 0
-2.13245e-12 -1.60856e-12 0
2.59905e-12 2.10437e-12 0
-3.36618e-12 -2.6421e-12 0
3.93936e-12 3.51121e-12 0
-5.20306e-12 -4.33504e-12 0
5.64872e-12 5.9372e-12 0
-7.86863e-12 -7.07918e-12 0
7.39576e-12 1.00896e-11 0
-1.19118e-11 -1.08653e-11 0
8.29897e-12 1.60144e-11 0
-1.9075e-11 -1.24752e-11 0
5.36951e-12 2.13205e-11 0
-3.3525e-11 -7.42936e-12 0
-3.00784e-23 1.0776e-23 0
-3.56018e-23 1.93048e-23 0
-7.11706e-23 3.46451e-23 0
1.23206e-23 -2.96176e-23 0
-8.91477e-23 5.59992e-26 0
2.99502e-23 -2.27404e-23 0
-1.6409e-23 -1.36819e-23 0
2.74382e-23 -1.1492e-23 0
-6.8859e-24 -8.17815e-24 0
2.02377e-23 -2.23974e-23 0
4.09759e-24 5.89506e-24 0
-4.80347e-23 2.66941e-23 0
-3.68419e-23 1.07681e-23 0
2.65875e-23 -3.71877e-24 0
-3.24737e-23 -1.61971e-23 0
7.00092e-23 4.22651e-23 0
-5.72956e-23 -6.36056e-23 0
7.84047e-23 9.7455e-23 0
-1.77628e-22 -1.08941e-22 0
2.19267e-22 2.18376e-22 0
-3.38517e-22 -2.93707e-22 0
6.27095e-22 3.981e-22 0
-7.97029e-22 -6.85376e-22 0
1.31576e-21 9.95488e-22 0
-2.03833e-21 -1.49468e-21 0
3.08052e-21 2.31218e-21 0
-4.63673e-21 -3.53409e-21 0
7.14191e-21 5.3037e-21 0
-1.06851e-20 -8.05639e-21 0
1.61206e-20 1.2117e-20 0
-2.43585e-20 -1.81054e-20 0
3.63141e-20 2.71822e-20 0
-5.44024e-20 -4.05301e-20 0
8.11384e-20 6.02796e-20 0
-1.20457e-19 -8.95604e-20 0
1.78628e-19 1.32524e-19 0
-2.64021e-19 -1.95621e-19 0
3.88974e-19 2.88069e-19 0
-5.71784e-19 -4.22809e-19 0
8.37911e-19 6.18949e-19 0
-1.22428e-18 -9.0355e-19 0
1.78418e-18 1.31531e-18 0
-2.59221e-18 -1.90938e-18 0
3.7557e-18 2.76392e-18 0
-5.42595e-18 -3.9896e-18 0
7.81621e-18 5.74269e-18 0
-1.12273e-17 -8.24267e-18 0
1.60806e-17 1.17975e-17 0
-2.2965e-17 -1.68376e-17 0
3.2702e-17 2.39627e-17 0
-4.6432e-17 -3.40059e-17 0
6.57344e-17 4.8121e-17 0
-9.2789e-17 -6.79005e-17 0
1.30594e-16 9.55365e-17 0
-1.83262e-16 -1.34036e-16 0
2.5641e-16 1.87511e-16 0
-3.57691e-16 -2.61566e-16 0
4.97493e-16 3.63822e-16 0
-6.89869e-16 -5.04594e-16 0
9.5376e-16 6.97819e-16 0
-1.31463e-15 -9.62247e-16 0
1.80653e-15 1.32305e-15 0
-2.47495e-15 -1.81386e-15 0
3.38026e-15 2.47957e-15 0
-4.6026e-15 -3.37975e-15 0
6.24734e-15 4.59343e-15 0
-8.45366e-15 -6.22471e-15 0
1.14027e-14 8.41109e-15 0
-1.53326e-14 -1.1332e-14 0
2.05494e-14 1.52237e-14 0
-2.74551e-14 -2.03912e-14 0
3.65567e-14 2.72363e-14 0
-4.85241e-14 -3.62694e-14 0
6.41774e-14 4.81674e-14 0
-8.46215e-14 -6.37693e-14 0
1.11142e-13 8.42095e-14 0
-1.45552e-13 -1.10837e-13 0
1.89773e-13 1.45553e-13 0
-2.46803e-13 -1.90457e-13 0
3.19265e-13 2.48779e-13 0
-4.12264e-13 -3.23604e-13 0
5.28679e-13 4.20593e-13 0
-6.77764e-13 -5.43775e-13 0
8.60382e-13 7.03665e-13 0
-1.0951e-12 -9.03927e-13 0
1.37266e-12 1.16586e-12 0
-1.7352e-12 -1.48699e-12 0
2.13762e-12 1.91503e-12 0
-2.68719e-12 -2.42099e-12 0
3.22532e-12 3.12138e-12 0
-4.04914e-12 -3.89293e-12 0
4.6605e-12 5.03445e-12 0
-5.92431e-12 -6.10788e-12 0
6.35234e-12 7.89648e-12 0
-8.50287e-12 -8.97084e-12 0
7.99797e-12 1.14816e-11 0
-1.23314e-11 -1.12121e-11 0
8.64285e-12 1.47e-11 0
-1.87296e-11 -1.07594e-11 0
5.43204e-12 1.94505e-11 0
-3.20386e-11 -7.38943e-12 0
1.63656e-23 -1.77929e-23 0
-1.03933e-24 -1.54341e-23 0
5.93692e-23 2.24393e-24 0
1.89495e-23 1.90008e-23 0
-6.01567e-23 4.7408e-23 0
2.39259e-23 -5.86808e-25 0
-7.33274e-24 1.42133e-23 0
-2.51183e-23 1.12246e-23 0
3.7177e-23 -5.3356e-25 0
-5.53543e-23 2.69005e-23 0
1.48472e-23 -2.42177e-23 0
3.43738e-23 8.08048e-24 0
-3.98936e-23 -6.02832e-24 0
8.99913e-23 2.6926e-23 0
-1.0085e-22 -2.36745e-23 0
6.53112e-23 8.32317e-23 0
-1.01931e-22 -1.152e-22 0
1.75421e-22 1.78409e-22 0
-2.5966e-22 -2.63754e-22 0
4.54858e-22 3.53817e-22 0
-7.04656e-22 -5.5568e-22 0
1.05599e-21 8.51342e-22 0
-1.64103e-21 -1.25613e-21 0
2.52549e-21 1.97221e-21 0
-3.78414e-21 -3.01522e-21 0
5.74881e-21 4.57203e-21 0
-8.70452e-21 -6.8865e-21 0
1.3088e-20 1.03829e-20 0
-1.97455e-20 -1.55922e-20 0
2.96756e-20 2.32918e-20 0
-4.42491e-20 -3.48741e-20 0
6.60734e-20 5.19333e-20 0
-9.81704e-20 -7.71296e-20 0
1.45545e-19 1.14327e-19 0
-2.15269e-19 -1.68899e-19 0
3.17341e-19 2.48878e-19 0
-4.66652e-19 -3.65733e-19 0
6.84312e-19 5.35846e-19 0
-1.00043e-18 -7.83003e-19 0
1.45854e-18 1.14096e-18 0
-2.1204e-18 -1.65792e-18 0
3.07365e-18 2.40243e-18 0
-4.443e-18 -3.47137e-18 0
6.4039e-18 5.00189e-18 0
-9.20364e-18 -7.18695e-18 0
1.31895e-17 1.02973e-17 0
-1.88467e-17 -1.47122e-17 0
2.68523e-17 2.09604e-17 0
-3.81472e-17 -2.97772e-17 0
5.40345e-17 4.21827e-17 0
-7.63143e-17 -5.95861e-17 0
1.07463e-16 8.39292e-17 0
-1.50879e-16 -1.17879e-16 0
2.11206e-16 1.65087e-16 0
-2.94772e-16 -2.30535e-16 0
4.10169e-16 3.21004e-16 0
-5.69024e-16 -4.45685e-16 0
7.87009e-16 6.17003e-16 0
-1.08519e-15 -8.51698e-16 0
1.49175e-15 1.17225e-15 0
-2.04431e-15 -1.60875e-15 0
2.79282e-15 2.20134e-15 0
-3.80348e-15 -3.00339e-15 0
5.16348e-15 4.08568e-15 0
-6.98752e-15 -5.54161e-15 0
9.42537e-15 7.4943e-15 0
-1.26727e-14 -1.0105e-14 0
1.69823e-14 1.35851e-14 0
-2.26827e-14 -1.82091e-14 0
3.01927e-14 2.43353e-14 0
-4.00543e-14 -3.24242e-14 0
5.29466e-14 4.30753e-14 0
-6.97494e-14 -5.70492e-14 0
9.15356e-14 7.53375e-14 0
-1.1971e-13 -9.91744e-14 0
1.55909e-13 1.30184e-13 0
-2.02349e-13 -1.70326e-13 0
2.614e-13 2.22244e-13 0
-3.36539e-13 -2.88958e-13 0
4.3089e-13 3.74782e-13 0
-5.5e-13 -4.84144e-13 0
6.97123e-13 6.24189e-13 0
-8.81614e-13 -8.00808e-13 0
1.10417e-12 1.02628e-12 0
-1.38244e-12 -1.30658e-12 0
1.70572e-12 1.66422e-12 0
-2.11313e-12 -2.09857e-12 0
2.55605e-12 2.65466e-12 0
-3.13586e-12 -3.30086e-12 0
3.68963e-12 4.13599e-12 0
-4.50768e-12 -5.01775e-12 0
5.09263e-12 6.18767e-12 0
-6.3052e-12 -7.16109e-12 0
6.66571e-12 8.62175e-12 0
-8.71695e-12 -9.15141e-12 0
8.08241e-12 1.09472e-11 0
-1.2224e-11 -1.01554e-11 0
8.36504e-12 1.37169e-11 0
-1.83576e-11 -1.0345e-11 0
5.13519e-12 1.96113e-11 0
-3.18117e-11 -8.14e-12 0
-1.25845e-23 4.36903e-23 0
-1.57005e-24 -1.34809e-23 0
6.57854e-23 -1.03903e-24 0
6.84784e-23 -3.60122e-23 0
-2.21275e-23 5.53832e-23 0
-1.43965e-22 9.91923e-23 0
2.59029e-23 8.46993e-24 0
4.41807e-23 -3.38075e-23 0
1.0595e-22 -4.83978e-23 0
9.29192e-23 8.68497e-25 0
-1.33077e-22 2.77645e-23 0
-5.98302e-23 8.08113e-23 0
-1.41985e-22 2.25288e-24 0
1.10578e-22 4.6011e-24 0
6.38835e-23 -1.63817e-22 0
1.77271e-22 1.01526e-22 0
-2.60622e-22 -1.80723e-22 0
2.44565e-22 3.41263e-22 0
-6.33936e-22 -4.35211e-22 0
8.43151e-22 6.99442e-22 0
-1.2188e-21 -1.10927e-21 0
2.07215e-21 1.61503e-21 0
-3.04594e-21 -2.53158e-21 0
4.51834e-21 3.83904e-21 0
-7.01255e-21 -5.76582e-21 0
1.04529e-20 8.71057e-21 0
-1.56775e-20 -1.31527e-20 0
2.37598e-20 1.95798e-20 0
-3.53707e-20 -2.9325e-20 0
5.2691e-20 4.37586e-20 0
-7.86008e-20 -6.4956e-20 0
1.16383e-19 9.6426e-20 0
-1.7225e-19 -1.42544e-19 0
2.54235e-19 2.10164e-19 0
-3.7376e-19 -3.09144e-19 0
5.48467e-19 4.53256e-19 0
-8.02295e-19 -6.62823e-19 0
1.17002e-18 9.66714e-19 0
-1.70186e-18 -1.40585e-18 0
2.46811e-18 2.03888e-18 0
-3.56911e-18 -2.94874e-18 0
5.14698e-18 4.25236e-18 0
-7.40057e-18 -6.11542e-18 0
1.06104e-17 8.76982e-18 0
-1.51687e-17 -1.25408e-17 0
2.16216e-17 1.78827e-17 0
-3.073e-17 -2.54277e-17 0
4.35477e-17 3.60531e-17 0
-6.15296e-17 -5.0973e-17 0
8.66801e-17 7.1861e-17 0
-1.21748e-16 -1.01018e-16 0
1.70493e-16 1.41597e-16 0
-2.38037e-16 -1.97905e-16 0
3.31335e-16 2.75804e-16 0
-4.59799e-16 -3.83251e-16 0
6.3612e-16 5.31008e-16 0
-8.77344e-16 -7.33581e-16 0
1.20628e-15 1.01047e-15 0
-1.65337e-15 -1.38777e-15 0
2.25899e-15 1.90033e-15 0
-3.07662e-15 -2.59449e-15 0
4.1767e-15 3.53168e-15 0
-5.65169e-15 -4.79305e-15 0
7.62235e-15 6.48543e-15 0
-1.02459e-14 -8.74888e-15 0
1.37259e-14 1.17666e-14 0
-1.83248e-14 -1.57768e-14 0
2.43789e-14 2.10892e-14 0
-3.23186e-14 -2.81028e-14 0
4.26872e-14 3.73333e-14 0
-5.61761e-14 -4.94387e-14 0
7.36418e-14 6.52644e-14 0
-9.61701e-14 -8.58759e-14 0
1.2507e-13 1.12639e-13 0
-1.62008e-13 -1.47242e-13 0
2.08901e-13 1.91857e-13 0
-2.68249e-13 -2.49092e-13 0
3.42691e-13 3.22349e-13 0